Box of Si with a vacancy

  511 atoms
  1    atom types
  0.0 21.72 xlo xhi
  0.0 21.72 ylo yhi
  0.0 21.72 zlo zhi

 Atoms

1    1        -0.01761540        0.02742571       -0.00799456
2    1         2.69140868        2.73573024       -0.00742504
3    1        -0.01390768        2.72746838        2.72239350
4    1         2.69798766        0.01450619        2.72140063
5    1         1.34261197        1.37434440        1.35840252
6    1         4.05307095        4.08400291        1.35807980
7    1         1.34304753        4.08342941        4.08295617
8    1         4.05617928        1.37089545        4.08267644
9    1        -0.01446791        0.01592511        5.44612315
10    1        2.69904021        2.72776286        5.44496211
11    1       -0.01297371        2.73800315        8.17275186
12    1        2.69892709        0.01483120        8.15982462
13    1        1.33902650        1.37571872        6.80788588
14    1        4.05465647        4.08699974        6.80539516
15    1        1.33837585        4.09604055        9.53588941
16    1       -0.01297323        0.02775854       10.88299853
17    1        4.05605938        1.37276644        9.51776139
18    1        1.33837106        1.39090147       12.24103573
19    1        2.69586316        0.02391858       13.58879500
20    1        2.69901699        2.73224201       10.87723548
21    1        4.04173528        4.09354288       12.23853609
22    1        1.24437435        4.19297274       14.95913687
23    1        4.02903763        1.40051693       14.95164491
24    1       -0.01341202        0.01932023       16.29785091
25    1        2.64467470        2.78585552       16.28080895
26    1       -0.03045179        2.78584474       18.95594685
27    1        2.69170424        0.02640925       19.00295972
28    1        1.33323098        1.39428869       17.64449300
29    1        4.03568028        4.09683382       17.64408591
30    1        1.33282609        4.09682859       20.34694624
31    1        4.05345289        1.37403022       20.36470908
32    1       -0.01553707        5.44275737        0.00160478
33    1        2.69409136        8.15073402       -0.00421951
34    1       -0.01338614        8.15286390        2.72257577
35    1        2.69922070        5.43990576        2.72181884
36    1        1.34205607        6.79641184        1.36184219
37    1        4.05418912        9.50597485        1.35919067
38    1        1.34345218        9.50970651        4.08202345
39    1        4.05699219        6.79609988        4.08214818
40    1       -0.01300005        5.44059964        5.44305820
41    1        2.69983105        8.15288027        5.44247067
42    1       -0.01340287        8.15286137        8.16431889
43    1        2.69586506        5.44380600        8.16890918
44    1        1.34272534        6.79734603        6.80329667
45    1        4.05337303        9.50901939        6.80619127
46    1        1.33324162        9.49950172        9.53928860
47    1        4.02904575        6.80665246        9.54550492
48    1       -0.01608952        5.45511586       10.90524901
49    1        2.64468833        8.13581423       10.93084837
50    1       -0.33122464        7.83502212       13.91008165
51    1        2.67655536        5.45204918       13.59704825
52    1        1.24438678        6.81413830       12.33796177
53    1        4.03569403        9.49908540       12.24183248
54    1        1.24106270        9.40730994       14.93225508
55    1        4.04907322        6.79886760       14.94387019
56    1       -0.33123530        5.76508931       15.98003326
57    1        2.67430130        8.14559023       16.29059619
58    1       -0.02066914        8.14559564       18.98555825
59    1        2.64271369        5.46076243       18.95397905
60    1        1.24105230        6.78726024       17.55231748
61    1        4.04125493        9.50246092       17.64746952
62    1        1.33621297        9.50246532       20.35250315
63    1        4.02810316        6.78793022       20.33935734
64    1       -0.01551422       10.86034256       -0.00421602
65    1        2.69927023       13.58047222        0.00547435
66    1       -0.01413861       13.58004490        2.72093435
67    1        2.69948366       10.86572890        2.72023738
68    1        1.33973031       12.22043650        1.35919381
69    1        4.05688832       14.93967178        1.36467075
70    1        1.34192750       14.93899293        4.08262074
71    1        4.05663344       12.22288210        4.08228569
72    1       -0.01337750       10.86608707        5.44246766
73    1        2.69833958       13.57964019        5.44346476
74    1       -0.01760735       13.56700997        8.17242837
75    1        2.69171212       10.85797207        8.17140963
76    1        1.34276055       12.21963068        6.80618853
77    1        4.05701604       14.93940245        6.80015347
78    1        1.34262299       14.93340764        9.51934323
79    1        4.05346272       12.21971589        9.51903405
80    1       -0.03044168       10.81094489       10.93085399
81    1        2.69141576       13.56757874       10.88073407
82    1       -0.01553175       13.57659928       13.58775954
83    1        2.64272937       10.80897567       13.60576552
84    1        1.33283910       12.20194442       12.24183480
85    1        4.05307757       14.93308104       12.22900814
86    1        1.34205907       14.93684081       14.94141231
87    1        4.02811085       12.19435525       14.93294056
88    1       -0.02065835       10.84055361       16.29058947
89    1        2.69409595       13.57078228       16.29573864
90    1       -0.01550846       13.57077982       19.00534538
91    1        2.69744219       10.86368723       19.00869200
92    1        1.33621854       12.20749956       17.64746581
93    1        4.05418791       14.93419740       17.65098024
94    1        1.33973134       14.93419431       20.36544023
95    1        4.05580030       12.22204511       20.36704693
96    1       -0.01413920       16.29593243        0.00504996
97    1        2.69833034       19.01846974        0.00463788
98    1       -0.01500951       19.01910799        2.72190727
99    1        2.69937716       16.29872070        2.72372018
100    1       1.34192508       17.65762249        1.36399525
101    1       4.05700513       20.37515717        1.36440198
102    1       1.34134972       20.37687764        4.08368611
103    1       4.05722641       17.65759786        4.08259815
104    1      -0.01500445       16.29690527        5.44410870
105    1       2.69905653       19.01649979        5.44149655
106    1      -0.01446235       19.02112695        8.16092054
107    1       2.69799925       16.29640296        8.15950167
108    1       1.34135564       17.65868661        6.80187563
109    1       4.05641530       20.37543793        6.80043640
110    1       1.33902956       20.38289247        9.52071390
111    1       4.05619098       17.65767789        9.51589156
112    1      -0.01390254       16.29739713       10.87246279
113    1       2.69904739       19.01996678       10.87275319
114    1      -0.01300120       19.01806398       13.58558718
115    1       2.69921882       16.29682071       13.58490196
116    1       1.34305207       17.65796227       12.22842037
117    1       4.05465911       20.38040223       12.23199191
118    1       1.34272162       20.37830406       14.94233271
119    1       4.05699048       17.65715077       14.94109399
120    1      -0.01338665       16.29757522       16.29786057
121    1       2.69982418       19.01747427       16.29786808
122    1      -0.01338397       19.01746986       19.01108000
123    1       2.69947833       16.29524412       19.01073052
124    1       1.34344890       17.65702725       17.65470062
125    1       4.05336721       20.38119393       17.65400652
126    1       1.34275378       20.38119066       20.36462225
127    1       4.05662829       17.65729370       20.36788132
128    1       5.41305247        0.01456930        0.00430920
129    1       8.12985485        2.72859405        0.00433737
130    1       5.41307937        2.72859629        2.72111508
131    1       8.13241319        0.01271155        2.72367271
132    1       6.77292801        1.37022373        1.36418803
133    1       9.49122215        4.08405178        1.36425856
134    1       6.77300168        4.08405358        4.08248184
135    1       9.49199912        1.36986711        4.08326076
136    1       5.41533354        0.01262895        5.44103266
137    1       8.13398293        2.72813194        5.44203271
138    1       5.41512908        2.72766609        8.15866582
139    1       8.13461521        0.01327630        8.15827119
140    1       6.77454017        1.37028766        6.79987597
141    1       9.49411714        4.08401720        6.80296557
142    1       6.76892500        4.08692787        9.51864181
143    1       9.49435906        1.37179326        9.51679271
144    1       5.41513341        0.01367026       10.87265776
145    1       8.13099572        2.72797113       10.87296765
146    1       5.40505322        2.73333076       13.58741342
147    1       8.13130676        0.01478789       13.58548845
148    1       6.76892516        1.37364577       12.23192413
149    1       9.49313767        4.08395611       12.22895383
150    1       6.77088557        4.08499045       14.94152779
151    1       9.49322911        1.37184620       14.94077115
152    1       5.40074405        0.02743529       16.29363728
153    1       8.13113244        2.72746948       16.29734340
154    1       5.40131417        2.73573288       19.00266304
155    1       8.13014146        0.01450497       19.00924428
156    1       6.76714398        1.37434706       17.65386777
157    1       9.49169927        4.08342480       17.65429992
158    1       6.76682264        4.08400148       20.36432536
159    1       9.49141676        1.37089017       20.36744029
160    1       5.40007406        5.44428157       -0.00867102
161    1       8.12968308        8.15210726        0.00504901
162    1       5.41379675        8.15210797        2.72093296
163    1       8.13039155        5.44141166        2.72164848
164    1       6.76668651        6.79328413        1.35793873
165    1       9.49137080        9.50817712        1.36399217
166    1       6.77274192        9.50817739        4.08261931
167    1       9.49262964        6.79553352        4.08388280
168    1       5.41416290        5.44041219        5.44347497
169    1       8.13065290        8.15124530        5.44410745
170    1       5.40075216        8.14864836        8.17242840
171    1       8.13130798        5.44049234        8.15978693
172    1       6.76731852        6.79869189        6.80686290
173    1       9.49243366        9.50760575        6.80187397
174    1       6.76715311        9.50887308        9.51934491
175    1       9.49323470        6.79577031        9.51684494
176    1       5.40505469        5.44241975       10.87832389
177    1       8.13113976        8.15234615       10.87246630
178    1       5.41034514        8.15071328       13.58776095
179    1       8.13195846        5.43987895       13.58487502
180    1       6.77088883        6.79653112       12.22998497
181    1       9.49170906        9.50930301       12.22841879
182    1       6.77059077        9.50830397       14.94141033
183    1       9.49158478        6.79648652       14.94147763
184    1       5.41034056        5.44275824       16.29571733
185    1       8.13132427        8.15286033       16.29785976
186    1       5.40453318        8.15072968       19.00534604
187    1       8.13056198        5.43990171       19.01047168
188    1       6.77058899        6.79640869       17.65330412
189    1       9.49077647        9.50970303       17.65469444
190    1       6.76794767        9.50597469       20.36543586
191    1       9.49089222        6.79609695       20.36824151
192    1       5.41422730       10.86551312        0.00547171
193    1       8.13252609       13.58156588        0.00656266
194    1       5.41531901       13.58156614        2.72377166
195    1       8.13247071       10.86562786        2.72371963
196    1       6.77342293       12.22313638        1.36466766
197    1       9.49107732       14.94013535        1.36513625
198    1       6.77388912       14.94013698        4.08232527
199    1       9.49134807       12.22347890        4.08259651
200    1       5.41338991       10.86458930        5.44346568
201    1       8.13219480       13.58156491        5.44118244
202    1       5.41306243       13.57931209        8.15956982
203    1       8.13015081       10.86424707        8.15950292
204    1       6.77315294       12.22326503        6.80015419
205    1       9.49115810       14.94020598        6.79925825
206    1       6.77293826       14.93918781        9.51522659
207    1       9.49142579       12.22244121        9.51589043
208    1       5.40132522       10.85766713       10.88073403
209    1       8.12986333       13.57933562       10.87359793
210    1       5.40007880       13.56632843       13.58928967
211    1       8.13056960       10.86546847       13.58490251
212    1       6.76683002       12.21932677       12.22900818
213    1       9.49123009       14.93925840       12.22905369
214    1       6.76668894       14.93294017       14.93829073
215    1       9.49090152       12.22324244       14.94109172
216    1       5.40453525       10.86033908       16.29573997
217    1       8.12968718       13.58004443       16.29710662
218    1       5.41422517       13.58047438       19.01051630
219    1       8.12899355       10.86572836       19.01072743
220    1       6.76794702       12.22043760       17.65097817
221    1       9.49137371       14.93898950       17.65317495
222    1       6.77342041       14.93967251       20.36813682
223    1       9.49104182       12.22288123       20.36787728
224    1       5.41531395       16.29877713        0.00656468
225    1       8.13218735       19.01618064        0.00656266
226    1       5.41530709       19.01618479        2.72344190
227    1       8.13251956       16.29876987        2.72376753
228    1       6.77388291       17.65732766        1.36513875
229    1       9.49114801       20.37425569        1.36520665
230    1       6.77394509       20.37426077        4.08240746
231    1       9.49112996       17.65738254        4.08238130
232    1       5.41531528       16.29844308        5.44118062
233    1       8.13294523       19.01612270        5.44111779
234    1       5.41534186       19.01603455        8.15762258
235    1       8.13242204       16.29867205        8.15771168
236    1       6.77395435       17.65740674        6.79925777
237    1       9.49230968       20.37463093        6.79962635
238    1       6.77454684       20.37487692        9.51528352
239    1       9.49200866       17.65825967        9.51486605
240    1       5.41308614       16.29611395       10.87359725
241    1       8.13398816       19.01703032       10.87312873
242    1       5.41416215       19.01847740       13.58540536
243    1       8.13039473       16.29664621       13.58641400
244    1       6.77300698       17.65748152       12.22905368
245    1       9.49411842       20.37796233       12.22901833
246    1       6.76731459       20.38186633       14.94368702
247    1       9.49263013       17.65888123       14.94053692
248    1       5.41379403       16.29593766       16.29710847
249    1       8.13064969       19.01911081       16.29624276
250    1       5.41338301       19.01847113       19.00958308
251    1       8.13246950       16.29871859       19.01062367
252    1       6.77273992       17.65762344       17.65317666
253    1       9.49242845       20.37687432       17.65260814
254    1       6.77314561       20.37515509       20.36826309
255    1       9.49134395       17.65759202       20.36848013
256    1      10.84977255        0.01262049        0.00659349
257    1      13.56740116        2.72765876        0.00639048
258    1      10.85077033        2.72812937        2.72524236
259    1      13.56701498        0.01327056        2.72587107
260    1      12.20861243        1.37028077        1.36580201
261    1      14.92738091        4.08691973        1.36018396
262    1      12.21170638        4.08401435        4.08537363
263    1      14.92553435        1.37178813        4.08561631
264    1      10.85201953        0.01389332        5.44327461
265    1      13.57230424        2.73094366        5.44875304
266    1      10.85749796        2.73094560        8.16356073
267    1      13.57444828        0.02070622        8.16570660
268    1      12.21231860        1.37152894        6.80357525
269    1      14.93335551        4.08584849        6.81282417
270    1      12.22157426        4.08585084        9.52460629
271    1      14.93512388        1.38138082        9.52638222
272    1      10.85749626        0.01856014       10.87594688
273    1      13.59044401        2.74406367       10.88906873
274    1      10.85535802        2.73027279       13.58644122
275    1      13.58771402        0.03397411       13.59184458
276    1      12.22156829        1.37960655       12.23085655
277    1      14.95700098        4.10433158       12.24933351
278    1      12.21576640        4.08825665       14.94253490
279    1      14.95976864        1.40603224       14.93627207
280    1      10.85486519        0.01592206       16.29679080
281    1      13.58149515        2.73800248       16.29829265
282    1      10.85370088        2.72775792       19.01029910
283    1      13.56856377        0.01482047       19.01018749
284    1      12.21662743        1.37571356       17.65028857
285    1      14.94464077        4.09603459       17.64964019
286    1      12.21413558        4.08699456       20.36591439
287    1      14.92649698        1.37275576       20.36732400
288    1      10.85221455        5.44040935        0.00541691
289    1      13.58117593        8.14863858       -0.00799972
290    1      10.85285567        8.15124393        2.72190518
291    1      13.56852687        5.44048825        2.72256250
292    1      12.21560664        6.79868794        1.35856931
293    1      14.92809147        9.50886498        1.35839948
294    1      12.21062413        9.50760338        4.08368476
295    1      14.92559018        6.79576572        4.08448477
296    1      10.85515176        5.44162991        5.44640771
297    1      13.56967047        8.15178515        5.44612237
298    1      10.85487127        8.15178618        8.16091903
299    1      13.58772292        5.44683330        8.17897088
300    1      12.21933293        6.79249891        6.81058331
301    1      14.92946418        9.50528153        6.80788369
302    1      12.21663775        9.50528252        9.52070695
303    1      14.95978157        6.79126154        9.55102239
304    1      10.85536317        5.44143754       10.87526932
305    1      13.58150493        8.15328085       10.88299010
306    1      10.85181278        8.15325380       13.58558648
307    1      13.57878770        5.44904096       13.59404425
308    1      12.21577475        6.79753013       12.23324996
309    1      14.94464619        9.50462724       12.24102687
310    1      12.21205689        9.50897729       14.94232956
311    1      14.94101741        6.80260126       14.94761140
312    1      10.85180309        5.44059614       16.29825327
313    1      13.57307426        8.15284660       16.29785055
314    1      10.85121695        8.15287443       19.01107852
315    1      13.57765668        5.44379836       19.00712555
316    1      12.21204627        6.79733661       17.65398010
317    1      14.94804699        9.49948430       17.64449409
318    1      12.21494061        9.50901061       20.36462003
319    1      14.95425936        6.80664113       20.34030260
320    1      10.85221726       10.86458523        0.00463564
321    1      13.56832268       13.57930374        0.00430725
322    1      10.84993432       13.58156227        2.72344110
323    1      13.56825158       10.86424097        2.72139729
324    1      12.20890498       12.22326042        1.36439913
325    1      14.92397679       14.93918057        1.36418485
326    1      12.20800950       14.94020342        4.08240503
327    1      14.92463853       12.22243576        4.08267224
328    1      10.85024740       10.86530930        5.44149676
329    1      13.56637543       13.58159185        5.44103082
330    1      10.84978422       13.58159431        8.15762457
331    1      13.56857832       10.86518336        8.15982196
332    1      12.20918561       12.22267116        6.80043402
333    1      14.92403248       14.94080093        6.79987417
334    1      12.20862668       14.94080121        9.51528413
335    1      14.92651555       12.22231713        9.51775693
336    1      10.85371429       10.86529788       10.87275066
337    1      13.56742238       13.58138941       10.87265681
338    1      10.85222813       13.58041466       13.58540345
339    1      13.57766780       10.86211997       13.58878922
340    1      12.21415064       12.22091339       12.23198609
341    1      14.92740009       14.93518032       12.23192311
342    1      12.21561787       14.93356681       14.94368545
343    1      14.95426658       12.19529501       14.95163966
344    1      10.85122774       10.86607902       16.29786574
345    1      13.58118889       13.56699971       16.29363650
346    1      10.85222338       13.57963351       19.00958031
347    1      13.58016549       10.85795737       19.00295934
348    1      12.21494977       12.21961978       17.65400519
349    1      14.92810220       14.93339914       17.65386659
350    1      12.20890859       14.93939520       20.36826015
351    1      14.92778644       12.21970599       20.36470827
352    1      10.84993446       16.29843637        0.00656080
353    1      13.56637222       19.01602389        0.00659261
354    1      10.84986833       19.01611807        2.72419717
355    1      13.56646475       16.29866693        2.72366993
356    1      12.20800738       17.65739941        1.36520483
357    1      14.92402618       20.37486703        1.36580402
358    1      12.20837132       20.37462776        4.08356579
359    1      14.92361371       17.65825735        4.08325978
360    1      10.84987130       16.29920066        5.44111860
361    1      13.56763786       19.01827714        5.44327393
362    1      10.85202113       19.01827841        8.15888889
363    1      13.56702169       16.30087420        8.15827201
364    1      12.20837588       17.65856857        6.79962732
365    1      14.92527165       20.37857612        6.80357584
366    1      12.21231823       20.37857554        9.51652978
367    1      14.92553864       17.66061658        9.51679467
368    1      10.85077965       16.30024028       10.87313026
369    1      13.57230286       19.02375294       10.87594728
370    1      10.85515307       19.02140432       13.58663321
371    1      13.56854111       16.29755903       13.58548874
372    1      12.21171229       17.66036968       12.22902014
373    1      14.93334641       20.38782635       12.23085769
374    1      12.21932792       20.38558105       14.93750824
375    1      14.92559779       17.65948178       14.94077222
376    1      10.85286042       16.29689991       16.29624114
377    1      13.56966919       19.02111645       16.29678938
378    1      10.85024193       19.01649105       19.01030896
379    1      13.56825756       16.29639307       19.00924288
380    1      12.21062417       17.65867785       17.65260697
381    1      14.92945489       20.38288121       17.65028956
382    1      12.20917665       20.37542702       20.36767489
383    1      14.92464221       17.65766639       20.36744102
384    1      16.28139877        0.01365926        0.00639233
385    1      18.99615954        2.73331748       -0.00367699
386    1      16.28170889        2.72796468        2.72225355
387    1      18.99423453        0.01478255        2.72256609
388    1      17.64066370        1.37363410        1.36018723
389    1      20.35027548        4.08498496        1.36214712
390    1      17.63769877        4.08395213        4.08438988
391    1      20.34951457        1.37184663        4.08448572
392    1      16.28468999        0.01855793        5.44875371
393    1      18.99518324        2.73027153        5.44661373
394    1      16.29781200        2.74406239        8.18170055
395    1      19.00058115        0.03397356        8.17897351
396    1      17.63959813        1.37960585        6.81282474
397    1      20.35127743        4.08825883        6.80701784
398    1      17.65808123        4.10433167        9.54825147
399    1      20.34500745        1.40603199        9.55102767
400    1      16.29780453        0.03669924       10.88906855
401    1      19.02315586        2.79483700       10.93983896
402    1      16.34858034        2.79483808       13.61441860
403    1      19.00278003        0.02504093       13.59404517
404    1      17.65807193        1.40325560       12.24933459
405    1      21.70390151        2.76025635       13.60011447
406    1      17.75227154        4.19852166       14.93749619
407    1      20.35634614        1.38726626       14.94761075
408    1      16.29173597        0.02775335       16.29829090
409    1      19.00885286        2.76025088       16.29517136
410    1      16.28597653        2.73223261       19.01028852
411    1      18.99753383        0.02390710       19.00712665
412    1      17.64977288        1.39089300       17.64963915
413    1      20.36788097        4.19296223       17.55564386
414    1      17.64728358        4.09352902       20.35300542
415    1      20.36038456        1.40050169       20.34030451
416    1      16.28707106        5.44240897       -0.00368107
417    1      18.99650873        8.15071195        0.00160458
418    1      16.28121132        8.15234074        2.72238945
419    1      18.99362428        5.43987576        2.72321613
420    1      17.63873394        6.79652535        1.36214580
421    1      20.35016191        9.50830518        1.36184262
422    1      17.63716745        9.50930036        4.08295225
423    1      20.35023101        6.79648792        4.08283351
424    1      16.28401776        5.44143645        5.44661306
425    1      18.99433965        8.15325743        5.44305573
426    1      16.29175171        8.15328392        8.17274971
427    1      19.00279092        5.44904508        8.17003826
428    1      17.64200450        6.79753167        6.80701702
429    1      20.35108240        9.50898769        6.80329396
430    1      17.64978847        9.50463350        9.53588885
431    1      20.35635766        6.80261368        9.53226090
432    1      16.34858501        5.46940917       10.93983454
433    1      19.00886158        8.15016591       10.90525002
434    1      16.31399852        8.15015703       13.60010769
435    1      20.34623947        4.19852591       12.34351850
436    1      17.75226989        6.79249373       12.34351592
437    1      20.36788674        9.41063648       12.33796565
438    1      17.74671368        9.41062894       14.95913206
439    1      19.32751317        5.77377061       13.91876395
440    1      16.31400417        5.45510644       16.29517106
441    1      19.31883039        7.83501829       15.98002809
442    1      16.33960707        8.13579953       18.95594417
443    1      19.00579679        5.45203734       18.98782680
444    1      17.74672198        6.81412507       17.55564585
445    1      20.34099975        9.40731423       17.55230861
446    1      17.65058597        9.49908010       20.34694454
447    1      20.35261655        6.79886576       20.36033617
448    1      16.28948315       10.85765816       -0.00742683
449    1      18.99803865       13.56632414       -0.00866924
450    1      16.28234594       13.57932987        2.72111119
451    1      18.99365153       10.86546812        2.72181712
452    1      17.63775460       12.21932107        1.35807728
453    1      20.34703953       14.93293652        1.35794120
454    1      17.63779909       14.93925622        4.08247804
455    1      20.34984296       12.22324496        4.08214393
456    1      16.28150440       10.86529705        5.44495856
457    1      18.99415674       13.58041809        5.44347082
458    1      16.28141272       13.58139148        8.15866365
459    1      18.99754795       10.86212903        8.16890957
460    1      17.64074097       12.22091590        6.80539131
461    1      20.35243635       14.93357367        6.80686038
462    1      17.64067779       14.93518411        9.51864117
463    1      20.36039878       12.19530426        9.54550802
464    1      16.28599020       10.86527557       10.87723246
465    1      18.99616971       13.57131539       10.87832612
466    1      16.28708575       13.57131048       13.58741315
467    1      19.00579643       10.84280784       13.59704716
468    1      17.64729370       12.20799109       12.23853446
469    1      20.35028662       14.93714657       12.22998483
470    1      17.63874773       14.93714242       14.94152648
471    1      20.35261968       12.21532658       14.94386447
472    1      16.33960373       10.81093377       16.28080597
473    1      18.99651547       13.57659622       16.29571447
474    1      16.28948743       13.56757149       19.00266395
475    1      19.01451095       10.80897651       18.95397617
476    1      17.65058375       12.20194121       17.64408074
477    1      20.35016813       14.93683750       17.65330650
478    1      17.63776057       14.93307435       20.36432707
479    1      20.34168703       12.19435580       20.33935720
480    1      16.28235016       16.29610622        0.00433662
481    1      18.99415430       19.01846895        0.00541869