BEGIN_CFG
 Size
    3
 Supercell
         1.000000      0.000000      0.000000
         0.000000      2.000000      0.000000
         0.000000      0.000000      3.000000
 AtomData:  id type       cartes_x      cartes_y      cartes_z           fx          fy          fz       nbh_grades
             1    0       0.100000      1.100000      2.100000     3.100000    4.100000    5.100000          6.10000
             2    0       0.200000      1.200000      2.200000     3.200000    4.200000    5.200000          6.20000
             3    0       0.300000      1.300000      2.300000     3.300000    4.300000    5.300000          6.30000
 Energy
       -7.0000
 PlusStress:  xx          yy          zz          yz          xz          xy
        8.10000    8.20000    8.3000 0    8.40000     8.50000     8.60000
 Feature   EFS_by	VASP
 Feature   ID	0
 Feature   MV_grade 9.000000	
 Feature   mindist	10.00000
END_CFG
