BEGIN_CFG
 Size
    64
 Supercell
        10.860000      0.000000      0.000000
         0.000000     10.860000      0.000000
         0.000000      0.000000     10.860000
 AtomData:  id type       cartes_x      cartes_y      cartes_z           fx          fy          fz
             1   14      -0.007311      0.073345     -0.033601     0.480411   -0.402081   -0.402656
             2   14       0.047423      2.674050      2.644560    -1.030240    0.552161    0.262340
             3   14       2.758740     -0.023161      2.665310    -1.343190    0.177591    1.280210
             4   14       2.819370      2.714390     -0.065549    -0.272828    0.208021    0.523222
             5   14       1.440900      1.365550      1.282980    -0.088056   -0.082057    0.114351
             6   14       1.316620      4.064760      4.027340     0.301144   -0.204843    0.068475
             7   14       4.045830      1.376370      4.094700    -0.147797    0.340179   -0.376148
             8   14       4.033200      4.191810      1.409260     0.011117   -0.819113   -0.967582
             9   14       5.405220     -0.064333      0.021066    -0.112647   -0.255717    0.282963
            10   14       5.375990      2.724040      2.635270    -0.237834    0.035961    1.289380
            11   14       8.152420      0.014353      2.760950     1.557450    1.044220   -0.148100
            12   14       8.100030      2.739850     -0.008436    -0.073769   -0.699247    0.510887
            13   14       6.755920      1.294980      1.453860     0.126302    0.634368   -1.795480
            14   14       6.710480      4.044660      4.064100     0.311340    0.712111   -0.012357
            15   14       9.456830      1.492630      4.188530     1.169830   -1.734330   -1.467830
            16   14       9.473140      4.120460      1.326550     0.528922   -0.100113    0.386705
            17   14       0.050469      5.480050     -0.038459     0.315999   -1.385900    0.810106
            18   14      -0.076265      8.151260      2.724970     0.607834    0.259233    0.516666
            19   14       2.679260      5.493320      2.787530    -0.042632    0.093298   -0.240942
            20   14       2.738440      8.027340     -0.092739    -1.268700    0.923045    0.994595
            21   14       1.292040      6.832700      1.428180     0.917996   -0.335663   -0.977070
            22   14       1.314430      9.461890      4.091920     0.800033    0.521751   -0.428303
            23   14       4.133790      6.796320      4.093600    -0.839852    0.333887   -0.082806
            24   14       3.966750      9.402870      1.389130     1.596780   -0.157256   -1.150120
            25   14       5.392750      5.482140     -0.003728     0.553250   -0.712469    0.192215
            26   14       5.447680      8.118750      2.713900     0.822930    0.666964   -0.082902
            27   14       8.114330      5.479150      2.780470     0.463736   -0.624667   -0.329013
            28   14       8.166380      8.137370     -0.024426     1.216180    0.270797    0.715505
            29   14       6.835680      6.768320      1.296000    -0.646944    0.561160    0.840735
            30   14       6.883970      9.586450      4.063240    -1.448140   -1.848890    0.873977
            31   14       9.555570      6.784890      4.154010    -0.955492   -0.118404   -1.075620
            32   14       9.575830      9.576350      1.367360    -1.420320   -0.438033   -0.398964
            33   14       0.005093     -0.017034      5.473780    -0.399901    0.635657    0.124979
            34   14       0.069166      2.782990      8.174500    -1.031000   -0.904367   -0.787277
            35   14       2.712400     -0.057969      8.078370    -1.013390    0.573577    0.815090
            36   14       2.643830      2.774180      5.459940     1.347750   -0.141723   -0.714955
            37   14       1.410420      1.393270      6.789920    -1.051590   -0.531215    0.284385
            38   14       1.446570      4.058070      9.462530    -0.067409    0.824710    1.039730
            39   14       4.039010      1.234610      9.428500     1.273250    1.115070    0.301297
            40   14       4.179350      4.022450      6.778720    -1.436890    1.212600   -0.505617
            41   14       5.458780      0.061030      5.432540    -0.640224   -1.083180   -0.230978
            42   14       5.448920      2.709830      8.091820     0.253612   -1.102390    1.294830
            43   14       8.063170      0.018470      8.102790     1.364670   -0.339059    0.414367
            44   14       8.101550      2.775360      5.465810    -0.573299    0.163601    0.046025
            45   14       6.793520      1.355160      6.738750    -0.169086    0.697236    0.422218
            46   14       6.757550      4.100910      9.512920    -0.699595   -0.449908   -0.055832
            47   14       9.464750      1.389650      9.443530     0.090651    0.266394    0.227524
            48   14       9.420640      4.069950      6.840900     1.103880   -0.025277   -0.373820
            49   14      -0.047878      5.334850      5.378170     0.287474    0.211177    1.404680
            50   14      -0.032205      8.094070      8.134720     0.893135   -0.627086    0.744561
            51   14       2.824950      5.410870      8.175180    -0.942421   -0.976796   -1.643600
            52   14       2.750700      8.129650      5.447530    -0.538842   -0.112253    0.437109
            53   14       1.336790      6.677920      6.796380     0.482267    0.481613   -0.342947
            54   14       1.342620      9.491330      9.469190    -0.009831   -0.320678    0.179550
            55   14       4.087720      6.719700      9.450600     0.788489    1.256940    0.326721
            56   14       4.073850      9.529100      6.858760     0.760894   -0.482607   -1.973270
            57   14       5.437740      5.501940      5.442640     0.129962   -1.421560   -0.177218
            58   14       5.415470      8.173670      8.156270     0.683291   -0.394663    0.412739
            59   14       8.046640      5.400640      8.111960     1.006990    0.761386    1.054610
            60   14       8.194030      8.108650      5.454780    -0.483497    0.864166    0.281369
            61   14       6.762810      6.787360      6.788840     0.165220    0.837294    0.080808
            62   14       6.861040      9.494660      9.526630    -1.393130    0.093146   -0.348902
            63   14       9.526960      6.718390      9.536040    -1.186380    0.608795   -1.323010
            64   14       9.528160      9.453360      6.879160    -0.847861    0.893438   -1.141610
 Energy
          0.000000000000
 Feature   ID	0
 Feature   MV_grade	1.000000
END_CFG

BEGIN_CFG
 Size
    64
 Supercell
        10.860000      0.000000      0.000000
         0.000000     10.860000      0.000000
         0.000000      0.000000     10.860000
 AtomData:  id type       cartes_x      cartes_y      cartes_z           fx          fy          fz
             1   14      -0.090776     -0.003359      0.067059     0.640899    0.646152   -0.280350
             2   14      -0.042736      2.804430      2.697490    -0.638293    0.154449    0.450737
             3   14       2.691940      0.037851      2.729890    -0.795507    0.072623   -0.202755
             4   14       2.674020      2.699080      0.069135     0.308316    0.776037   -0.270816
             5   14       1.273290      1.458970      1.435200     0.316889   -1.588530   -0.726100
             6   14       1.420380      4.030350      4.041990    -0.263841    0.594035    0.555202
             7   14       4.059910      1.269430      4.075660    -0.013347    1.066430    0.617530
             8   14       4.192910      4.002920      1.401640    -0.400750   -0.516599   -0.126431
             9   14       5.446960      0.115681      0.033720    -0.221112   -1.185740    0.651779
            10   14       5.519200      2.661950      2.877110    -0.246689   -0.144207   -1.483160
            11   14       8.165630     -0.053968      2.697610     0.629445    0.540796    0.230445
            12   14       8.185250      2.744640     -0.058386    -0.556483   -0.434250    0.384619
            13   14       6.881490      1.356370      1.398970    -0.414718    0.845999   -0.246246
            14   14       6.870040      4.074400      4.100140     0.250196   -0.219731    0.936008
            15   14       9.516210      1.353540      4.046490     0.905568   -0.862116   -0.537171
            16   14       9.447960      4.147800      1.301890     0.767645   -0.668437    0.060863
            17   14      -0.061436      5.479460     -0.033347     1.157770   -0.375640    0.513525
            18   14       0.055641      8.245080      2.734670    -0.471664   -2.050930   -0.500425
            19   14       2.783590      5.360970      2.651950    -0.465865    0.338368    0.180514
            20   14       2.753650      8.171880      0.088492    -0.762720    0.445473   -0.356662
            21   14       1.373200      6.779980      1.366230    -0.270988    0.053751    0.166894
            22   14       1.380020      9.493520      4.061650     0.698141    0.552900    0.209085
            23   14       4.082680      6.789760      3.959820    -0.753472   -0.364130    0.978478
            24   14       4.061440      9.582850      1.437290     0.406853    0.125397   -1.115660
            25   14       5.455930      5.407790      0.026884     0.163713   -0.268987    0.223833
            26   14       5.370760      8.188120      2.726650     1.533650    0.178611   -0.282253
            27   14       8.190940      5.424110      2.710440    -0.753271    0.310097    0.047200
            28   14       8.044550      8.200300      0.008327     1.006730   -1.274270   -0.127420
            29   14       6.770910      6.767020      1.398990    -0.118538    0.611594   -0.017158
            30   14       6.829330      9.540780      4.062420    -0.575317   -1.284300   -0.069209
            31   14       9.543000      6.770680      4.018690     1.003890    0.036461    0.049099
            32   14       9.492270      9.428280      1.376630    -0.417968    0.706460   -0.233961
            33   14       0.085547     -0.012341      5.388660    -1.223870    0.346422    0.506569
            34   14       0.055079      2.716200      8.189320    -1.106510   -0.180458   -0.576727
            35   14       2.677670      0.006923      8.102230     0.289106   -0.597112    0.578561
            36   14       2.703520      2.645820      5.466020     0.667140    0.643728   -1.046690
            37   14       1.337460      1.411790      6.788580     0.010683   -1.093380    0.190225
            38   14       1.316890      4.072300      9.503540     0.736643    0.518433    0.908242
            39   14       4.012250      1.331170      9.577010     0.173782    0.968335   -1.412170
            40   14       4.067240      4.090000      6.715300    -0.727541    0.424530    0.943732
            41   14       5.395110     -0.060160      5.383690     0.223777   -0.311959    0.503005
            42   14       5.395780      2.760280      8.110050    -0.090229   -1.286850    0.281778
            43   14       8.095950      0.026322      8.138700     0.362580   -1.096080   -0.510831
            44   14       8.242240      2.581510      5.451170    -1.360710    1.345950    0.103751
            45   14       6.744020      1.276230      6.730220    -0.192005    1.044430    0.510927
            46   14       6.774240      4.069560      9.486420     0.272875    0.342135   -0.493342
            47   14       9.485510      1.341720      9.447030     0.358750    0.188980    0.644042
            48   14       9.526920      4.016930      6.794830     0.660873    0.474451   -0.405285
            49   14       0.081582      5.468620      5.441760    -0.590544   -1.000480   -0.229563
            50   14      -0.001513      8.243770      8.167430    -0.059303   -1.285130   -0.320717
            51   14       2.686080      5.480720      8.193860     0.808001   -1.160580   -0.155905
            52   14       2.691880      8.089200      5.369220     0.472249   -0.094195    0.309259
            53   14       1.384330      6.800370      6.847030    -0.522185    0.849641   -0.308948
            54   14       1.301580      9.523460      9.559960     1.040350    0.441371    0.245289
            55   14       4.038220      6.746970      9.642850     0.700381    0.941804   -1.521140
            56   14       4.072520      9.417120      6.746980    -0.934678    0.996782   -0.121052
            57   14       5.386280      5.456780      5.364480     0.549341   -0.416005   -0.301418
            58   14       5.405270      8.167570      8.119250     0.043297   -1.116410    1.216010
            59   14       8.125330      5.420100      8.044660     0.141212    0.303596    1.006620
            60   14       8.164880      8.041110      5.331530    -0.313567    1.257400    0.754058
            61   14       6.735750      6.787520      6.706090     0.241398    0.089075    0.451283
            62   14       6.731990      9.555680      9.532840    -0.231382    0.160435   -0.616528
            63   14       9.526700      6.803980      9.497380    -1.704660    0.842317   -0.763287
            64   14       9.495550      9.472080      6.730510    -0.344404    0.641037   -0.049779
 Energy
          0.000000000000
 Feature   ID	1
 Feature   MV_grade	1.000000
END_CFG

BEGIN_CFG
 Size
    64
 Supercell
        10.860000      0.000000      0.000000
         0.000000     10.860000      0.000000
         0.000000      0.000000     10.860000
 AtomData:  id type       cartes_x      cartes_y      cartes_z           fx          fy          fz
             1   14       0.025707     -0.047948      0.049173     0.399411    0.909263   -0.896435
             2   14       0.038171      2.554660      2.687770    -0.055991    2.245300    0.680701
             3   14       2.756060     -0.065170      2.796010    -0.223473    0.616724   -1.524980
             4   14       2.752900      2.816550      0.003467     0.106200   -0.425125    0.268366
             5   14       1.423140      1.355710      1.323510     0.702173   -0.967656    0.248200
             6   14       1.390160      4.097080      4.075970    -1.113660   -1.905390    0.190133
             7   14       4.038030      1.382340      4.079440    -0.272769   -0.070762    0.237734
             8   14       4.057390      4.222970      1.423560     0.119046   -1.406590   -0.223098
             9   14       5.410660     -0.018000      0.034672     0.223843   -0.688198   -0.430479
            10   14       5.364320      2.661530      2.729140     0.008109    0.363040   -1.634630
            11   14       8.141690     -0.049478      2.739900    -0.022752    1.153470    0.054144
            12   14       8.143250      2.652570     -0.022331    -0.162022    1.271640    0.294201
            13   14       6.804910      1.330660      1.346630    -0.447174   -0.134468    0.655754
            14   14       6.682440      4.015970      3.975550     1.380330   -0.076928    1.795640
            15   14       9.508220      1.360090      4.107340    -0.004552   -0.773025   -0.325250
            16   14       9.499450      4.039570      1.404660    -0.095036   -0.892529   -0.006991
            17   14       0.028911      5.348090      0.062765    -0.038367    0.383457   -0.641827
            18   14      -0.020971      8.141020      2.688520    -0.255873    0.270615    0.122455
            19   14       2.636640      5.438190      2.788030     1.322390    1.302030   -0.354144
            20   14       2.652890      8.130150     -0.053163     0.635136    0.133311    0.830377
            21   14       1.363540      6.756320      1.379660    -0.478167    0.332022   -0.334522
            22   14       1.318700      9.534240      4.060260     0.074764   -0.779338    0.249643
            23   14       4.054900      6.879280      4.070870    -0.427985   -1.104310    0.621775
            24   14       4.085650      9.387590      1.391610    -0.256908    0.638347   -0.304454
            25   14       5.397090      5.512930      0.009313     0.049567   -0.198813   -0.127912
            26   14       5.493650      8.055940      2.709380    -0.666638    1.558930    0.522708
            27   14       8.118260      5.377460      2.784040    -0.119699    0.756315   -1.231570
            28   14       8.157840      8.072800     -0.021192     0.524215    0.611769    0.131350
            29   14       6.776380      6.818390      1.352180     1.120640   -1.536950    0.074321
            30   14       6.773040      9.511130      4.070500    -0.430817   -0.319882   -0.171371
            31   14       9.460820      6.809730      4.086190     0.677363   -0.719719   -0.292117
            32   14       9.463260      9.554080      1.341360     0.202133   -1.605350    0.057057
            33   14       0.040570      0.013319      5.431530    -0.932025    0.009335    0.277789
            34   14      -0.050096      2.727640      8.126200     0.901900    0.212515    0.149308
            35   14       2.741400      0.009329      8.120040     0.076662    0.734438   -0.199585
            36   14       2.775620      2.769830      5.472910    -0.335209    0.191198   -0.245274
            37   14       1.361260      1.412060      6.755740     0.232410   -0.274696    0.577540
            38   14       1.384570      4.070710      9.459390    -0.723312   -0.058520    0.353717
            39   14       4.061170      1.372300      9.528930     0.193271   -0.080930   -0.105243
            40   14       4.159100      4.108260      6.833690    -1.017380   -0.031050   -0.016975
            41   14       5.402280      0.069731      5.366920     0.557948   -0.834175    0.244715
            42   14       5.448800      2.667340      8.128940     0.055545    0.029738    0.166912
            43   14       8.215760      0.069472      8.146260    -1.069330   -0.848493    0.222967
            44   14       8.203770      2.751890      5.441530    -1.427330    0.130432   -0.526908
            45   14       6.800440      1.324660      6.719580     0.439561    0.776130    0.594813
            46   14       6.703380      4.080670      9.518440     0.818266   -0.327769    0.293086
            47   14       9.567830      1.375670      9.533920    -0.048132   -0.570813    0.037933
            48   14       9.451810      4.125300      6.853300     0.528483   -0.373902   -0.691432
            49   14      -0.017105      5.378480      5.411210    -0.594739    0.431014   -0.146859
            50   14      -0.023830      8.151950      8.137120     0.579137   -0.397411   -0.778324
            51   14       2.670800      5.468650      8.139260     1.335920   -0.140190   -0.140488
            52   14       2.682830      8.234560      5.478070     0.539625   -0.288539   -0.753405
            53   14       1.382460      6.712770      6.673460    -0.917404    1.361470    1.343310
            54   14       1.402700      9.549550      9.462640    -1.017160   -0.603797    0.081030
            55   14       4.079000      6.865320      9.482120    -0.425538   -0.557170   -0.443475
            56   14       4.149790      9.554350      6.775490    -0.861124    0.138106   -0.258618
            57   14       5.422530      5.395410      5.376170     0.209958    1.170040    0.403084
            58   14       5.440620      8.165310      8.080850     0.176164    0.073213    0.856199
            59   14       8.118970      5.429700      8.192420    -0.422901   -0.021780    0.171354
            60   14       8.111790      8.136490      5.385210    -0.323003    0.190851    0.860239
            61   14       6.797670      6.791780      6.830950    -0.154928   -0.560143   -1.324020
            62   14       6.824120      9.443020      9.493910    -0.148486    1.175610   -0.181143
            63   14       9.546870      6.704720      9.500100     0.082971    0.438070    0.516269
            64   14       9.426000      9.513330      6.748920     1.216750   -0.033993    0.126699
 Energy
          0.000000000000
 Feature   ID	2
 Feature   MV_grade	1.000000
END_CFG

BEGIN_CFG
 Size
    64
 Supercell
        10.860000      0.000000      0.000000
         0.000000     10.860000      0.000000
         0.000000      0.000000     10.860000
 AtomData:  id type       cartes_x      cartes_y      cartes_z           fx          fy          fz
             1   14      -0.009615      0.094085     -0.075416    -0.372439   -0.811116    0.238059
             2   14      -0.039992      2.807100      2.618510     0.053215   -0.868812    1.107680
             3   14       2.660010      0.010533      2.645150     0.103909   -0.405657    1.059660
             4   14       2.816420      2.647270     -0.019541    -0.530988    0.602339    0.618821
             5   14       1.316590      1.402240      1.341710     0.363737    0.128199   -0.559742
             6   14       1.363600      4.079610      4.010130     0.018441    0.153566    0.632602
             7   14       4.047530      1.290670      4.111460    -0.116120    0.836069   -0.594852
             8   14       4.134180      4.064040      1.362870    -0.553246   -0.005742    0.013187
             9   14       5.387150      0.015071     -0.015474     0.761366   -0.562984    1.276510
            10   14       5.450310      2.763280      2.785010     0.028467   -1.149580   -0.146941
            11   14       8.237820      0.037135      2.700430    -0.043385   -0.135614   -0.130933
            12   14       8.082960      2.727810     -0.069024    -0.336038   -0.201830    0.488184
            13   14       6.805310      1.325110      1.378200    -0.532125    0.829272   -0.175299
            14   14       6.802470      4.123640      4.124920     1.005640   -0.649988   -0.144994
            15   14       9.500270      1.418780      4.099800     0.858822   -0.239464   -0.433816
            16   14       9.451930      4.057070      1.269230     0.526828    0.822213   -0.612884
            17   14       0.008468      5.472810     -0.074889    -0.686201   -0.519840    0.462483
            18   14      -0.041176      8.206710      2.742380     0.322851   -1.675060    0.273467
            19   14       2.742950      5.459660      2.695650    -0.281141   -0.686293   -0.430876
            20   14       2.739810      8.115370     -0.032070    -1.254050    0.162296    0.644808
            21   14       1.301020      6.767140      1.359570     0.539650    0.977450    0.039003
            22   14       1.363740      9.462290      4.111490    -0.399119    1.175500   -0.054319
            23   14       4.082240      6.742360      4.064890     0.035055    1.082630   -0.368702
            24   14       4.026600      9.487840      1.331560     0.296568    0.429864   -0.059668
            25   14       5.433120      5.431520     -0.005994     0.424396   -0.011611    0.258336
            26   14       5.413850      8.210640      2.718520     0.667377   -0.743796    0.159043
            27   14       8.225790      5.425760      2.683640    -1.217710   -0.696515    0.287502
            28   14       8.112050      8.179930     -0.101018     1.036210   -0.998004    1.887550
            29   14       6.816980      6.763270      1.384610    -0.272223    0.957420   -0.585999
            30   14       6.922000      9.535510      4.036640    -0.915449   -0.644118    0.714255
            31   14       9.501920      6.677120      4.098130     0.950480    1.474650    0.073376
            32   14       9.548440      9.494200      1.339410    -0.606170    0.755199   -1.096450
            33   14      -0.019080      0.051978      5.516450     0.552070   -0.624193   -0.476761
            34   14       0.066828      2.765980      8.212210    -0.410158    0.093236    0.035896
            35   14       2.690020     -0.053713      8.122090     0.350081    0.517457    0.837561
            36   14       2.659720      2.701170      5.462190     0.816899    0.187055   -0.821778
            37   14       1.406200      1.376350      6.870480    -1.022420   -0.010669   -0.368513
            38   14       1.479820      4.125640      9.567780    -0.419345   -0.674012   -0.506417
            39   14       4.109540      1.273100      9.487010    -0.887481    0.528020   -0.780166
            40   14       4.114080      4.075740      6.720600    -0.744501   -0.241517    0.616803
            41   14       5.441730     -0.044027      5.427870     0.017685   -0.200639    0.364898
            42   14       5.384540      2.709610      8.160620     0.001862    0.113488   -0.323490
            43   14       8.077250     -0.054600      8.083390     0.515901    0.565200    0.810017
            44   14       8.144450      2.623390      5.518350    -0.288008    1.915440   -0.567789
            45   14       6.735980      1.381510      6.827020    -0.302135   -1.049730   -0.350923
            46   14       6.744240      4.084670      9.444440    -0.252978   -0.077502    0.523345
            47   14       9.401640      1.407940      9.430580     0.769818   -0.548158   -0.156910
            48   14       9.469540      4.075000      6.862010     1.054530   -0.439297   -1.005020
            49   14       0.071104      5.438620      5.485400    -0.973743   -1.075690   -0.225999
            50   14       0.000289      8.118810      8.176960     0.277608    0.243612    0.282467
            51   14       2.760020      5.428710      8.120350     0.403490   -0.046507    0.363065
            52   14       2.683620      8.044480      5.415330     0.064047    0.350318    0.811104
            53   14       1.319240      6.764640      6.894520     0.920858    0.180297   -1.029040
            54   14       1.351680      9.493920      9.480100    -0.084063    0.017577    0.587043
            55   14       4.073540      6.781250      9.542290     0.591353    0.024885   -1.013610
            56   14       3.991650      9.473100      6.815770     1.161510   -0.584552   -0.928577
            57   14       5.416320      5.459810      5.406860     0.638731    0.120144    0.508610
            58   14       5.460470      8.199160      8.200520    -0.671741   -0.334333   -0.079039
            59   14       8.065080      5.398040      8.085030     0.395640    0.818991    0.609482
            60   14       8.188950      8.071110      5.468730     0.228311    0.878462   -0.483607
            61   14       6.770310      6.828350      6.794180    -0.570440   -0.352453   -0.069766
            62   14       6.796510      9.551090      9.577770    -0.771532    0.258988   -1.323130
            63   14       9.468670      6.791910      9.408360    -0.493707   -0.478808    0.588786
            64   14       9.551320      9.441680      6.874270    -0.744757    0.544268   -1.267600
 Energy
          0.000000000000
 Feature   ID	3
 Feature   MV_grade	1.000000
END_CFG

BEGIN_CFG
 Size
    64
 Supercell
        10.860000      0.000000      0.000000
         0.000000     10.860000      0.000000
         0.000000      0.000000     10.860000
 AtomData:  id type       cartes_x      cartes_y      cartes_z           fx          fy          fz
             1   14      -0.013486      0.015386     -0.132658    -0.365664    0.951890    1.350880
             2   14      -0.013702      2.712080      2.702530    -0.657713   -0.051860   -1.057360
             3   14       2.651020     -0.014591      2.676890     0.194016    0.487011    0.337860
             4   14       2.869030      2.558620     -0.030795    -0.803835    2.173670    0.258575
             5   14       1.346020      1.388310      1.263820    -0.224120   -0.840066    0.494585
             6   14       1.266560      4.023510      4.035260     1.048500    0.757233    0.373062
             7   14       4.123390      1.385720      4.011720    -0.918512   -1.183190   -0.018426
             8   14       4.058650      4.138290      1.374950    -0.829037   -0.869239   -0.651186
             9   14       5.422170     -0.086712     -0.030385     0.206923    0.595761    0.965171
            10   14       5.366070      2.745470      2.620520     1.083780    0.361394    1.294710
            11   14       8.220550      0.060130      2.734320    -0.210511    0.327719   -0.856399
            12   14       8.071270      2.726310     -0.035207     0.098292   -0.380852    0.823977
            13   14       6.711210      1.329500      1.369790     0.823206   -0.037135   -0.624197
            14   14       6.780330      4.107390      4.052990    -0.634494   -0.346244    0.435312
            15   14       9.495490      1.441430      4.115590     0.315163   -0.616908    0.347507
            16   14       9.426830      4.085810      1.343930     1.097460   -0.782959   -0.524845
            17   14      -0.009879      5.424190     -0.016308    -0.300314    0.496147    0.455300
            18   14      -0.045263      8.125260      2.713820     0.030383    0.080789   -0.143226
            19   14       2.653060      5.457930      2.709550    -0.295406   -0.149898   -0.003698
            20   14       2.711530      8.083570     -0.065122     0.162258    1.245140    0.318846
            21   14       1.350180      6.871580      1.310350    -0.534823   -1.361210    0.494689
            22   14       1.302280      9.448460      4.053420     0.155076    0.856320    0.630833
            23   14       4.021750      6.786520      4.073620     0.848552    0.141026   -0.188116
            24   14       4.015860      9.502710      1.341040     0.215533   -0.687685   -0.135454
            25   14       5.439670      5.392930      0.046235     0.835504    0.184963   -0.564097
            26   14       5.432620      8.196380      2.749860     0.330266   -0.436645   -0.417038